t 0.013 /NodeList/9/DeviceList/0/$ns3::WifiNetDevice/Phy/State/Tx ns3::WifiMacHeader (DATA ToDS=0, FromDS=0, MoreFrag=0, Retry=0, MoreData=0 Duration/ID=0us, DA=ff:ff:ff:ff:ff:ff, SA=00:00:00:00:00:0a, BSSID=00:00:00:00:00:0a, FragNumber=0, SeqNumber=0) ns3::LlcSnapHeader (type 0x800) ns3::Ipv4Header (tos 0x0 DSCP Default ECN Not-ECT ttl 1 id 0 protocol 17 offset (bytes) 0 flags [none] length: 48 192.168.0.10 > 192.168.0.255) ns3::UdpHeader (length: 28 654 > 654) ns3::aodv::TypeHeader (RREP) ns3::aodv::RrepHeader (destination: ipv4 192.168.0.10 sequence number 0 source ipv4 192.168.0.10 lifetime 2000 acknowledgment required flag 0) ns3::WifiMacTrailer ()
t 0.014 /NodeList/15/DeviceList/0/$ns3::WifiNetDevice/Phy/State/Tx ns3::WifiMacHeader (DATA ToDS=0, FromDS=0, MoreFrag=0, Retry=0, MoreData=0 Duration/ID=0us, DA=ff:ff:ff:ff:ff:ff, SA=00:00:00:00:00:10, BSSID=00:00:00:00:00:10, FragNumber=0, SeqNumber=0) ns3::LlcSnapHeader (type 0x800) ns3::Ipv4Header (tos 0x0 DSCP Default ECN Not-ECT ttl 1 id 0 protocol 17 offset (bytes) 0 flags [none] length: 48 192.168.0.16 > 192.168.0.255) ns3::UdpHeader (length: 28 654 > 654) ns3::aodv::TypeHeader (RREP) ns3::aodv::RrepHeader (destination: ipv4 192.168.0.16 sequence number 0 source ipv4 192.168.0.16 lifetime 2000 acknowledgment required flag 0) ns3::WifiMacTrailer ()
t 0.015 /NodeList/8/DeviceList/0/$ns3::WifiNetDevice/Phy/State/Tx ns3::WifiMacHeader (DATA ToDS=0, FromDS=0, MoreFrag=0, Retry=0, MoreData=0 Duration/ID=0us, DA=ff:ff:ff:ff:ff:ff, SA=00:00:00:00:00:09, BSSID=00:00:00:00:00:09, FragNumber=0, SeqNumber=0) ns3::LlcSnapHeader (type 0x800) ns3::Ipv4Header (tos 0x0 DSCP Default ECN Not-ECT ttl 1 id 0 protocol 17 offset (bytes) 0 flags [none] length: 48 192.168.0.9 > 192.168.0.255) ns3::UdpHeader (length: 28 654 > 654) ns3::aodv::TypeHeader (RREP) ns3::aodv::RrepHeader (destination: ipv4 192.168.0.9 sequence number 0 source ipv4 192.168.0.9 lifetime 2000 acknowledgment required flag 0) ns3::WifiMacTrailer ()
t 0.048 /NodeList/6/DeviceList/0/$ns3::WifiNetDevice/Phy/State/Tx ns3::WifiMacHeader (DATA ToDS=0, FromDS=0, MoreFrag=0, Retry=0, MoreData=0 Duration/ID=0us, DA=ff:ff:ff:ff:ff:ff, SA=00:00:00:00:00:07, BSSID=00:00:00:00:00:07, FragNumber=0, SeqNumber=0) ns3::LlcSnapHeader (type 0x800) ns3::Ipv4Header (tos 0x0 DSCP Default ECN Not-ECT ttl 1 id 0 protocol 17 offset (bytes) 0 flags [none] length: 48 192.168.0.7 > 192.168.0.255) ns3::UdpHeader (length: 28 654 > 654) ns3::aodv::TypeHeader (RREP) ns3::aodv::RrepHeader (destination: ipv4 192.168.0.7 sequence number 0 source ipv4 192.168.0.7 lifetime 2000 acknowledgment required flag 0) ns3::WifiMacTrailer ()
t 0.049 /NodeList/2/DeviceList/0/$ns3::WifiNetDevice/Phy/State/Tx ns3::WifiMacHeader (DATA ToDS=0, FromDS=0, MoreFrag=0, Retry=0, MoreData=0 Duration/ID=0us, DA=ff:ff:ff:ff:ff:ff, SA=00:00:00:00:00:03, BSSID=00:00:00:00:00:03, FragNumber=0, SeqNumber=0) ns3::LlcSnapHeader (type 0x800) ns3::Ipv4Header (tos 0x0 DSCP Default ECN Not-ECT ttl 1 id 0 protocol 17 offset (bytes) 0 flags [none] length: 48 192.168.0.3 > 192.168.0.255) ns3::UdpHeader (length: 28 654 > 654) ns3::aodv::TypeHeader (RREP) ns3::aodv::RrepHeader (destination: ipv4 192.168.0.3 sequence number 0 source ipv4 192.168.0.3 lifetime 2000 acknowledgment required flag 0) ns3::WifiMacTrailer ()
t 0.054 /NodeList/11/DeviceList/0/$ns3::WifiNetDevice/Phy/State/Tx ns3::WifiMacHeader (DATA ToDS=0, FromDS=0, MoreFrag=0, Retry=0, MoreData=0 Duration/ID=0us, DA=ff:ff:ff:ff:ff:ff, SA=00:00:00:00:00:0c, BSSID=00:00:00:00:00:0c, FragNumber=0, SeqNumber=0) ns3::LlcSnapHeader (type 0x800) ns3::Ipv4Header (tos 0x0 DSCP Default ECN Not-ECT ttl 1 id 0 protocol 17 offset (bytes) 0 flags [none] length: 48 192.168.0.12 > 192.168.0.255) ns3::UdpHeader (length: 28 654 > 654) ns3::aodv::TypeHeader (RREP) ns3::aodv::RrepHeader (destination: ipv4 192.168.0.12 sequence number 0 source ipv4 192.168.0.12 lifetime 2000 acknowledgment required flag 0) ns3::WifiMacTrailer ()
t 0.058 /NodeList/19/DeviceList/0/$ns3::WifiNetDevice/Phy/State/Tx ns3::WifiMacHeader (DATA ToDS=0, FromDS=0, MoreFrag=0, Retry=0, MoreData=0 Duration/ID=0us, DA=ff:ff:ff:ff:ff:ff, SA=00:00:00:00:00:14, BSSID=00:00:00:00:00:14, FragNumber=0, SeqNumber=0) ns3::LlcSnapHeader (type 0x800) ns3::Ipv4Header (tos 0x0 DSCP Default ECN Not-ECT ttl 1 id 0 protocol 17 offset (bytes) 0 flags [none] length: 48 192.168.0.20 > 192.168.0.255) ns3::UdpHeader (length: 28 654 > 654) ns3::aodv::TypeHeader (RREP) ns3::aodv::RrepHeader (destination: ipv4 192.168.0.20 sequence number 0 source ipv4 192.168.0.20 lifetime 2000 acknowledgment required flag 0) ns3::WifiMacTrailer ()
t 0.06 /NodeList/3/DeviceList/0/$ns3::WifiNetDevice/Phy/State/Tx ns3::WifiMacHeader (DATA ToDS=0, FromDS=0, MoreFrag=0, Retry=0, MoreData=0 Duration/ID=0us, DA=ff:ff:ff:ff:ff:ff, SA=00:00:00:00:00:04, BSSID=00:00:00:00:00:04, FragNumber=0, SeqNumber=0) ns3::LlcSnapHeader (type 0x800) ns3::Ipv4Header (tos 0x0 DSCP Default ECN Not-ECT ttl 1 id 0 protocol 17 offset (bytes) 0 flags [none] length: 48 192.168.0.4 > 192.168.0.255) ns3::UdpHeader (length: 28 654 > 654) ns3::aodv::TypeHeader (RREP) ns3::aodv::RrepHeader (destination: ipv4 192.168.0.4 sequence number 0 source ipv4 192.168.0.4 lifetime 2000 acknowledgment required flag 0) ns3::WifiMacTrailer ()
t 0.069 /NodeList/5/DeviceList/0/$ns3::WifiNetDevice/Phy/State/Tx ns3::WifiMacHeader (DATA ToDS=0, FromDS=0, MoreFrag=0, Retry=0, MoreData=0 Duration/ID=0us, DA=ff:ff:ff:ff:ff:ff, SA=00:00:00:00:00:06, BSSID=00:00:00:00:00:06, FragNumber=0, SeqNumber=0) ns3::LlcSnapHeader (type 0x800) ns3::Ipv4Header (tos 0x0 DSCP Default ECN Not-ECT ttl 1 id 0 protocol 17 offset (bytes) 0 flags [none] length: 48 192.168.0.6 > 192.168.0.255) ns3::UdpHeader (length: 28 654 > 654) ns3::aodv::TypeHeader (RREP) ns3::aodv::RrepHeader (destination: ipv4 192.168.0.6 sequence number 0 source ipv4 192.168.0.6 lifetime 2000 acknowledgment required flag 0) ns3::WifiMacTrailer ()
t 0.075 /NodeList/17/DeviceList/0/$ns3::WifiNetDevice/Phy/State/Tx ns3::WifiMacHeader (DATA ToDS=0, FromDS=0, MoreFrag=0, Retry=0, MoreData=0 Duration/ID=0us, DA=ff:ff:ff:ff:ff:ff, SA=00:00:00:00:00:12, BSSID=00:00:00:00:00:12, FragNumber=0, SeqNumber=0) ns3::LlcSnapHeader (type 0x800) ns3::Ipv4Header (tos 0x0 DSCP Default ECN Not-ECT ttl 1 id 0 protocol 17 offset (bytes) 0 flags [none] length: 48 192.168.0.18 > 192.168.0.255) ns3::UdpHeader (length: 28 654 > 654) ns3::aodv::TypeHeader (RREP) ns3::aodv::RrepHeader (destination: ipv4 192.168.0.18 sequence number 0 source ipv4 192.168.0.18 lifetime 2000 acknowledgment required flag 0) ns3::WifiMacTrailer ()
t 0.083 /NodeList/4/DeviceList/0/$ns3::WifiNetDevice/Phy/State/Tx ns3::WifiMacHeader (DATA ToDS=0, FromDS=0, MoreFrag=0, Retry=0, MoreData=0 Duration/ID=0us, DA=ff:ff:ff:ff:ff:ff, SA=00:00:00:00:00:05, BSSID=00:00:00:00:00:05, FragNumber=0, SeqNumber=0) ns3::LlcSnapHeader (type 0x800) ns3::Ipv4Header (tos 0x0 DSCP Default ECN Not-ECT ttl 1 id 0 protocol 17 offset (bytes) 0 flags [none] length: 48 192.168.0.5 > 192.168.0.255) ns3::UdpHeader (length: 28 654 > 654) ns3::aodv::TypeHeader (RREP) ns3::aodv::RrepHeader (destination: ipv4 192.168.0.5 sequence number 0 source ipv4 192.168.0.5 lifetime 2000 acknowledgment required flag 0) ns3::WifiMacTrailer ()
t 0.086 /NodeList/16/DeviceList/0/$ns3::WifiNetDevice/Phy/State/Tx ns3::WifiMacHeader (DATA ToDS=0, FromDS=0, MoreFrag=0, Retry=0, MoreData=0 Duration/ID=0us, DA=ff:ff:ff:ff:ff:ff, SA=00:00:00:00:00:11, BSSID=00:00:00:00:00:11, FragNumber=0, SeqNumber=0) ns3::LlcSnapHeader (type 0x800) ns3::Ipv4Header (tos 0x0 DSCP Default ECN Not-ECT ttl 1 id 0 protocol 17 offset (bytes) 0 flags [none] length: 48 192.168.0.17 > 192.168.0.255) ns3::UdpHeader (length: 28 654 > 654) ns3::aodv::TypeHeader (RREP) ns3::aodv::RrepHeader (destination: ipv4 192.168.0.17 sequence number 0 source ipv4 192.168.0.17 lifetime 2000 acknowledgment required flag 0) ns3::WifiMacTrailer ()
t 0.088 /NodeList/18/DeviceList/0/$ns3::WifiNetDevice/Phy/State/Tx ns3::WifiMacHeader (DATA ToDS=0, FromDS=0, MoreFrag=0, Retry=0, MoreData=0 Duration/ID=0us, DA=ff:ff:ff:ff:ff:ff, SA=00:00:00:00:00:13, BSSID=00:00:00:00:00:13, FragNumber=0, SeqNumber=0) ns3::LlcSnapHeader (type 0x800) ns3::Ipv4Header (tos 0x0 DSCP Default ECN Not-ECT ttl 1 id 0 protocol 17 offset (bytes) 0 flags [none] length: 48 192.168.0.19 > 192.168.0.255) ns3::UdpHeader (length: 28 654 > 654) ns3::aodv::TypeHeader (RREP) ns3::aodv::RrepHeader (destination: ipv4 192.168.0.19 sequence number 0 source ipv4 192.168.0.19 lifetime 2000 acknowledgment required flag 0) ns3::WifiMacTrailer ()
t 0.089 /NodeList/13/DeviceList/0/$ns3::WifiNetDevice/Phy/State/Tx ns3::WifiMacHeader (DATA ToDS=0, FromDS=0, MoreFrag=0, Retry=0, MoreData=0 Duration/ID=0us, DA=ff:ff:ff:ff:ff:ff, SA=00:00:00:00:00:0e, BSSID=00:00:00:00:00:0e, FragNumber=0, SeqNumber=0) ns3::LlcSnapHeader (type 0x800) ns3::Ipv4Header (tos 0x0 DSCP Default ECN Not-ECT ttl 1 id 0 protocol 17 offset (bytes) 0 flags [none] length: 48 192.168.0.14 > 192.168.0.255) ns3::UdpHeader (length: 28 654 > 654) ns3::aodv::TypeHeader (RREP) ns3::aodv::RrepHeader (destination: ipv4 192.168.0.14 sequence number 0 source ipv4 192.168.0.14 lifetime 2000 acknowledgment required flag 0) ns3::WifiMacTrailer ()
t 0.089 /NodeList/10/DeviceList/0/$ns3::WifiNetDevice/Phy/State/Tx ns3::WifiMacHeader (DATA ToDS=0, FromDS=0, MoreFrag=0, Retry=0, MoreData=0 Duration/ID=0us, DA=ff:ff:ff:ff:ff:ff, SA=00:00:00:00:00:0b, BSSID=00:00:00:00:00:0b, FragNumber=0, SeqNumber=0) ns3::LlcSnapHeader (type 0x800) ns3::Ipv4Header (tos 0x0 DSCP Default ECN Not-ECT ttl 1 id 0 protocol 17 offset (bytes) 0 flags [none] length: 48 192.168.0.11 > 192.168.0.255) ns3::UdpHeader (length: 28 654 > 654) ns3::aodv::TypeHeader (RREP) ns3::aodv::RrepHeader (destination: ipv4 192.168.0.11 sequence number 0 source ipv4 192.168.0.11 lifetime 2000 acknowledgment required flag 0) ns3::WifiMacTrailer ()
t 0.091 /NodeList/0/DeviceList/0/$ns3::WifiNetDevice/Phy/State/Tx ns3::WifiMacHeader (DATA ToDS=0, FromDS=0, MoreFrag=0, Retry=0, MoreData=0 Duration/ID=0us, DA=ff:ff:ff:ff:ff:ff, SA=00:00:00:00:00:01, BSSID=00:00:00:00:00:01, FragNumber=0, SeqNumber=0) ns3::LlcSnapHeader (type 0x800) ns3::Ipv4Header (tos 0x0 DSCP Default ECN Not-ECT ttl 1 id 0 protocol 17 offset (bytes) 0 flags [none] length: 48 192.168.0.1 > 192.168.0.255) ns3::UdpHeader (length: 28 654 > 654) ns3::aodv::TypeHeader (RREP) ns3::aodv::RrepHeader (destination: ipv4 192.168.0.1 sequence number 0 source ipv4 192.168.0.1 lifetime 2000 acknowledgment required flag 0) ns3::WifiMacTrailer ()
t 0.092 /NodeList/7/DeviceList/0/$ns3::WifiNetDevice/Phy/State/Tx ns3::WifiMacHeader (DATA ToDS=0, FromDS=0, MoreFrag=0, Retry=0, MoreData=0 Duration/ID=0us, DA=ff:ff:ff:ff:ff:ff, SA=00:00:00:00:00:08, BSSID=00:00:00:00:00:08, FragNumber=0, SeqNumber=0) ns3::LlcSnapHeader (type 0x800) ns3::Ipv4Header (tos 0x0 DSCP Default ECN Not-ECT ttl 1 id 0 protocol 17 offset (bytes) 0 flags [none] length: 48 192.168.0.8 > 192.168.0.255) ns3::UdpHeader (length: 28 654 > 654) ns3::aodv::TypeHeader (RREP) ns3::aodv::RrepHeader (destination: ipv4 192.168.0.8 sequence number 0 source ipv4 192.168.0.8 lifetime 2000 acknowledgment required flag 0) ns3::WifiMacTrailer ()
t 0.095 /NodeList/12/DeviceList/0/$ns3::WifiNetDevice/Phy/State/Tx ns3::WifiMacHeader (DATA ToDS=0, FromDS=0, MoreFrag=0, Retry=0, MoreData=0 Duration/ID=0us, DA=ff:ff:ff:ff:ff:ff, SA=00:00:00:00:00:0d, BSSID=00:00:00:00:00:0d, FragNumber=0, SeqNumber=0) ns3::LlcSnapHeader (type 0x800) ns3::Ipv4Header (tos 0x0 DSCP Default ECN Not-ECT ttl 1 id 0 protocol 17 offset (bytes) 0 flags [none] length: 48 192.168.0.13 > 192.168.0.255) ns3::UdpHeader (length: 28 654 > 654) ns3::aodv::TypeHeader (RREP) ns3::aodv::RrepHeader (destination: ipv4 192.168.0.13 sequence number 0 source ipv4 192.168.0.13 lifetime 2000 acknowledgment required flag 0) ns3::WifiMacTrailer ()
t 0.099 /NodeList/14/DeviceList/0/$ns3::WifiNetDevice/Phy/State/Tx ns3::WifiMacHeader (DATA ToDS=0, FromDS=0, MoreFrag=0, Retry=0, MoreData=0 Duration/ID=0us, DA=ff:ff:ff:ff:ff:ff, SA=00:00:00:00:00:0f, BSSID=00:00:00:00:00:0f, FragNumber=0, SeqNumber=0) ns3::LlcSnapHeader (type 0x800) ns3::Ipv4Header (tos 0x0 DSCP Default ECN Not-ECT ttl 1 id 0 protocol 17 offset (bytes) 0 flags [none] length: 48 192.168.0.15 > 192.168.0.255) ns3::UdpHeader (length: 28 654 > 654) ns3::aodv::TypeHeader (RREP) ns3::aodv::RrepHeader (destination: ipv4 192.168.0.15 sequence number 0 source ipv4 192.168.0.15 lifetime 2000 acknowledgment required flag 0) ns3::WifiMacTrailer ()
t 0.105 /NodeList/1/DeviceList/0/$ns3::WifiNetDevice/Phy/State/Tx ns3::WifiMacHeader (DATA ToDS=0, FromDS=0, MoreFrag=0, Retry=0, MoreData=0 Duration/ID=0us, DA=ff:ff:ff:ff:ff:ff, SA=00:00:00:00:00:02, BSSID=00:00:00:00:00:02, FragNumber=0, SeqNumber=0) ns3::LlcSnapHeader (type 0x800) ns3::Ipv4Header (tos 0x0 DSCP Default ECN Not-ECT ttl 1 id 0 protocol 17 offset (bytes) 0 flags [none] length: 48 192.168.0.2 > 192.168.0.255) ns3::UdpHeader (length: 28 654 > 654) ns3::aodv::TypeHeader (RREP) ns3::aodv::RrepHeader (destination: ipv4 192.168.0.2 sequence number 0 source ipv4 192.168.0.2 lifetime 2000 acknowledgment required flag 0) ns3::WifiMacTrailer ()
t 1.016 /NodeList/8/DeviceList/0/$ns3::WifiNetDevice/Phy/State/Tx ns3::WifiMacHeader (DATA ToDS=0, FromDS=0, MoreFrag=0, Retry=0, MoreData=0 Duration/ID=0us, DA=ff:ff:ff:ff:ff:ff, SA=00:00:00:00:00:09, BSSID=00:00:00:00:00:09, FragNumber=0, SeqNumber=1) ns3::LlcSnapHeader (type 0x800) ns3::Ipv4Header (tos 0x0 DSCP Default ECN Not-ECT ttl 1 id 1 protocol 17 offset (bytes) 0 flags [none] length: 48 192.168.0.9 > 192.168.0.255) ns3::UdpHeader (length: 28 654 > 654) ns3::aodv::TypeHeader (RREP) ns3::aodv::RrepHeader (destination: ipv4 192.168.0.9 sequence number 0 source ipv4 192.168.0.9 lifetime 2000 acknowledgment required flag 0) ns3::WifiMacTrailer ()
t 1.018 /NodeList/9/DeviceList/0/$ns3::WifiNetDevice/Phy/State/Tx ns3::WifiMacHeader (DATA ToDS=0, FromDS=0, MoreFrag=0, Retry=0, MoreData=0 Duration/ID=0us, DA=ff:ff:ff:ff:ff:ff, SA=00:00:00:00:00:0a, BSSID=00:00:00:00:00:0a, FragNumber=0, SeqNumber=1) ns3::LlcSnapHeader (type 0x800) ns3::Ipv4Header (tos 0x0 DSCP Default ECN Not-ECT ttl 1 id 1 protocol 17 offset (bytes) 0 flags [none] length: 48 192.168.0.10 > 192.168.0.255) ns3::UdpHeader (length: 28 654 > 654) ns3::aodv::TypeHeader (RREP) ns3::aodv::RrepHeader (destination: ipv4 192.168.0.10 sequence number 0 source ipv4 192.168.0.10 lifetime 2000 acknowledgment required flag 0) ns3::WifiMacTrailer ()
t 1.02 /NodeList/15/DeviceList/0/$ns3::WifiNetDevice/Phy/State/Tx ns3::WifiMacHeader (DATA ToDS=0, FromDS=0, MoreFrag=0, Retry=0, MoreData=0 Duration/ID=0us, DA=ff:ff:ff:ff:ff:ff, SA=00:00:00:00:00:10, BSSID=00:00:00:00:00:10, FragNumber=0, SeqNumber=1) ns3::LlcSnapHeader (type 0x800) ns3::Ipv4Header (tos 0x0 DSCP Default ECN Not-ECT ttl 1 id 1 protocol 17 offset (bytes) 0 flags [none] length: 48 192.168.0.16 > 192.168.0.255) ns3::UdpHeader (length: 28 654 > 654) ns3::aodv::TypeHeader (RREP) ns3::aodv::RrepHeader (destination: ipv4 192.168.0.16 sequence number 0 source ipv4 192.168.0.16 lifetime 2000 acknowledgment required flag 0) ns3::WifiMacTrailer ()
t 1.045 /NodeList/6/DeviceList/0/$ns3::WifiNetDevice/Phy/State/Tx ns3::WifiMacHeader (DATA ToDS=0, FromDS=0, MoreFrag=0, Retry=0, MoreData=0 Duration/ID=0us, DA=ff:ff:ff:ff:ff:ff, SA=00:00:00:00:00:07, BSSID=00:00:00:00:00:07, FragNumber=0, SeqNumber=1) ns3::LlcSnapHeader (type 0x800) ns3::Ipv4Header (tos 0x0 DSCP Default ECN Not-ECT ttl 1 id 1 protocol 17 offset (bytes) 0 flags [none] length: 48 192.168.0.7 > 192.168.0.255) ns3::UdpHeader (length: 28 654 > 654) ns3::aodv::TypeHeader (RREP) ns3::aodv::RrepHeader (destination: ipv4 192.168.0.7 sequence number 0 source ipv4 192.168.0.7 lifetime 2000 acknowledgment required flag 0) ns3::WifiMacTrailer ()
t 1.049 /NodeList/2/DeviceList/0/$ns3::WifiNetDevice/Phy/State/Tx ns3::WifiMacHeader (DATA ToDS=0, FromDS=0, MoreFrag=0, Retry=0, MoreData=0 Duration/ID=0us, DA=ff:ff:ff:ff:ff:ff, SA=00:00:00:00:00:03, BSSID=00:00:00:00:00:03, FragNumber=0, SeqNumber=1) ns3::LlcSnapHeader (type 0x800) ns3::Ipv4Header (tos 0x0 DSCP Default ECN Not-ECT ttl 1 id 1 protocol 17 offset (bytes) 0 flags [none] length: 48 192.168.0.3 > 192.168.0.255) ns3::UdpHeader (length: 28 654 > 654) ns3::aodv::TypeHeader (RREP) ns3::aodv::RrepHeader (destination: ipv4 192.168.0.3 sequence number 0 source ipv4 192.168.0.3 lifetime 2000 acknowledgment required flag 0) ns3::WifiMacTrailer ()
t 1.052 /NodeList/19/DeviceList/0/$ns3::WifiNetDevice/Phy/State/Tx ns3::WifiMacHeader (DATA ToDS=0, FromDS=0, MoreFrag=0, Retry=0, MoreData=0 Duration/ID=0us, DA=ff:ff:ff:ff:ff:ff, SA=00:00:00:00:00:14, BSSID=00:00:00:00:00:14, FragNumber=0, SeqNumber=1) ns3::LlcSnapHeader (type 0x800) ns3::Ipv4Header (tos 0x0 DSCP Default ECN Not-ECT ttl 1 id 1 protocol 17 offset (bytes) 0 flags [none] length: 48 192.168.0.20 > 192.168.0.255) ns3::UdpHeader (length: 28 654 > 654) ns3::aodv::TypeHeader (RREP) ns3::aodv::RrepHeader (destination: ipv4 192.168.0.20 sequence number 0 source ipv4 192.168.0.20 lifetime 2000 acknowledgment required flag 0) ns3::WifiMacTrailer ()
t 1.054 /NodeList/11/DeviceList/0/$ns3::WifiNetDevice/Phy/State/Tx ns3::WifiMacHeader (DATA ToDS=0, FromDS=0, MoreFrag=0, Retry=0, MoreData=0 Duration/ID=0us, DA=ff:ff:ff:ff:ff:ff, SA=00:00:00:00:00:0c, BSSID=00:00:00:00:00:0c, FragNumber=0, SeqNumber=1) ns3::LlcSnapHeader (type 0x800) ns3::Ipv4Header (tos 0x0 DSCP Default ECN Not-ECT ttl 1 id 1 protocol 17 offset (bytes) 0 flags [none] length: 48 192.168.0.12 > 192.168.0.255) ns3::UdpHeader (length: 28 654 > 654) ns3::aodv::TypeHeader (RREP) ns3::aodv::RrepHeader (destination: ipv4 192.168.0.12 sequence number 0 source ipv4 192.168.0.12 lifetime 2000 acknowledgment required flag 0) ns3::WifiMacTrailer ()
t 1.061 /NodeList/3/DeviceList/0/$ns3::WifiNetDevice/Phy/State/Tx ns3::WifiMacHeader (DATA ToDS=0, FromDS=0, MoreFrag=0, Retry=0, MoreData=0 Duration/ID=0us, DA=ff:ff:ff:ff:ff:ff, SA=00:00:00:00:00:04, BSSID=00:00:00:00:00:04, FragNumber=0, SeqNumber=1) ns3::LlcSnapHeader (type 0x800) ns3::Ipv4Header (tos 0x0 DSCP Default ECN Not-ECT ttl 1 id 1 protocol 17 offset (bytes) 0 flags [none] length: 48 192.168.0.4 > 192.168.0.255) ns3::UdpHeader (length: 28 654 > 654) ns3::aodv::TypeHeader (RREP) ns3::aodv::RrepHeader (destination: ipv4 192.168.0.4 sequence number 0 source ipv4 192.168.0.4 lifetime 2000 acknowledgment required flag 0) ns3::WifiMacTrailer ()
t 1.062 /NodeList/5/DeviceList/0/$ns3::WifiNetDevice/Phy/State/Tx ns3::WifiMacHeader (DATA ToDS=0, FromDS=0, MoreFrag=0, Retry=0, MoreData=0 Duration/ID=0us, DA=ff:ff:ff:ff:ff:ff, SA=00:00:00:00:00:06, BSSID=00:00:00:00:00:06, FragNumber=0, SeqNumber=1) ns3::LlcSnapHeader (type 0x800) ns3::Ipv4Header (tos 0x0 DSCP Default ECN Not-ECT ttl 1 id 1 protocol 17 offset (bytes) 0 flags [none] length: 48 192.168.0.6 > 192.168.0.255) ns3::UdpHeader (length: 28 654 > 654) ns3::aodv::TypeHeader (RREP) ns3::aodv::RrepHeader (destination: ipv4 192.168.0.6 sequence number 0 source ipv4 192.168.0.6 lifetime 2000 acknowledgment required flag 0) ns3::WifiMacTrailer ()
t 1.071 /NodeList/17/DeviceList/0/$ns3::WifiNetDevice/Phy/State/Tx ns3::WifiMacHeader (DATA ToDS=0, FromDS=0, MoreFrag=0, Retry=0, MoreData=0 Duration/ID=0us, DA=ff:ff:ff:ff:ff:ff, SA=00:00:00:00:00:12, BSSID=00:00:00:00:00:12, FragNumber=0, SeqNumber=1) ns3::LlcSnapHeader (type 0x800) ns3::Ipv4Header (tos 0x0 DSCP Default ECN Not-ECT ttl 1 id 1 protocol 17 offset (bytes) 0 flags [none] length: 48 192.168.0.18 > 192.168.0.255) ns3::UdpHeader (length: 28 654 > 654) ns3::aodv::TypeHeader (RREP) ns3::aodv::RrepHeader (destination: ipv4 192.168.0.18 sequence number 0 source ipv4 192.168.0.18 lifetime 2000 acknowledgment required flag 0) ns3::WifiMacTrailer ()
t 1.078 /NodeList/4/DeviceList/0/$ns3::WifiNetDevice/Phy/State/Tx ns3::WifiMacHeader (DATA ToDS=0, FromDS=0, MoreFrag=0, Retry=0, MoreData=0 Duration/ID=0us, DA=ff:ff:ff:ff:ff:ff, SA=00:00:00:00:00:05, BSSID=00:00:00:00:00:05, FragNumber=0, SeqNumber=1) ns3::LlcSnapHeader (type 0x800) ns3::Ipv4Header (tos 0x0 DSCP Default ECN Not-ECT ttl 1 id 1 protocol 17 offset (bytes) 0 flags [none] length: 48 192.168.0.5 > 192.168.0.255) ns3::UdpHeader (length: 28 654 > 654) ns3::aodv::TypeHeader (RREP) ns3::aodv::RrepHeader (destination: ipv4 192.168.0.5 sequence number 0 source ipv4 192.168.0.5 lifetime 2000 acknowledgment required flag 0) ns3::WifiMacTrailer ()
t 1.082 /NodeList/16/DeviceList/0/$ns3::WifiNetDevice/Phy/State/Tx ns3::WifiMacHeader (DATA ToDS=0, FromDS=0, MoreFrag=0, Retry=0, MoreData=0 Duration/ID=0us, DA=ff:ff:ff:ff:ff:ff, SA=00:00:00:00:00:11, BSSID=00:00:00:00:00:11, FragNumber=0, SeqNumber=1) ns3::LlcSnapHeader (type 0x800) ns3::Ipv4Header (tos 0x0 DSCP Default ECN Not-ECT ttl 1 id 1 protocol 17 offset (bytes) 0 flags [none] length: 48 192.168.0.17 > 192.168.0.255) ns3::UdpHeader (length: 28 654 > 654) ns3::aodv::TypeHeader (RREP) ns3::aodv::RrepHeader (destination: ipv4 192.168.0.17 sequence number 0 source ipv4 192.168.0.17 lifetime 2000 acknowledgment required flag 0) ns3::WifiMacTrailer ()
t 1.085 /NodeList/13/DeviceList/0/$ns3::WifiNetDevice/Phy/State/Tx ns3::WifiMacHeader (DATA ToDS=0, FromDS=0, MoreFrag=0, Retry=0, MoreData=0 Duration/ID=0us, DA=ff:ff:ff:ff:ff:ff, SA=00:00:00:00:00:0e, BSSID=00:00:00:00:00:0e, FragNumber=0, SeqNumber=1) ns3::LlcSnapHeader (type 0x800) ns3::Ipv4Header (tos 0x0 DSCP Default ECN Not-ECT ttl 1 id 1 protocol 17 offset (bytes) 0 flags [none] length: 48 192.168.0.14 > 192.168.0.255) ns3::UdpHeader (length: 28 654 > 654) ns3::aodv::TypeHeader (RREP) ns3::aodv::RrepHeader (destination: ipv4 192.168.0.14 sequence number 0 source ipv4 192.168.0.14 lifetime 2000 acknowledgment required flag 0) ns3::WifiMacTrailer ()
t 1.086 /NodeList/18/DeviceList/0/$ns3::WifiNetDevice/Phy/State/Tx ns3::WifiMacHeader (DATA ToDS=0, FromDS=0, MoreFrag=0, Retry=0, MoreData=0 Duration/ID=0us, DA=ff:ff:ff:ff:ff:ff, SA=00:00:00:00:00:13, BSSID=00:00:00:00:00:13, FragNumber=0, SeqNumber=1) ns3::LlcSnapHeader (type 0x800) ns3::Ipv4Header (tos 0x0 DSCP Default ECN Not-ECT ttl 1 id 1 protocol 17 offset (bytes) 0 flags [none] length: 48 192.168.0.19 > 192.168.0.255) ns3::UdpHeader (length: 28 654 > 654) ns3::aodv::TypeHeader (RREP) ns3::aodv::RrepHeader (destination: ipv4 192.168.0.19 sequence number 0 source ipv4 192.168.0.19 lifetime 2000 acknowledgment required flag 0) ns3::WifiMacTrailer ()
t 1.089 /NodeList/12/DeviceList/0/$ns3::WifiNetDevice/Phy/State/Tx ns3::WifiMacHeader (DATA ToDS=0, FromDS=0, MoreFrag=0, Retry=0, MoreData=0 Duration/ID=0us, DA=ff:ff:ff:ff:ff:ff, SA=00:00:00:00:00:0d, BSSID=00:00:00:00:00:0d, FragNumber=0, SeqNumber=1) ns3::LlcSnapHeader (type 0x800) ns3::Ipv4Header (tos 0x0 DSCP Default ECN Not-ECT ttl 1 id 1 protocol 17 offset (bytes) 0 flags [none] length: 48 192.168.0.13 > 192.168.0.255) ns3::UdpHeader (length: 28 654 > 654) ns3::aodv::TypeHeader (RREP) ns3::aodv::RrepHeader (destination: ipv4 192.168.0.13 sequence number 0 source ipv4 192.168.0.13 lifetime 2000 acknowledgment required flag 0) ns3::WifiMacTrailer ()
t 1.09 /NodeList/10/DeviceList/0/$ns3::WifiNetDevice/Phy/State/Tx ns3::WifiMacHeader (DATA ToDS=0, FromDS=0, MoreFrag=0, Retry=0, MoreData=0 Duration/ID=0us, DA=ff:ff:ff:ff:ff:ff, SA=00:00:00:00:00:0b, BSSID=00:00:00:00:00:0b, FragNumber=0, SeqNumber=1) ns3::LlcSnapHeader (type 0x800) ns3::Ipv4Header (tos 0x0 DSCP Default ECN Not-ECT ttl 1 id 1 protocol 17 offset (bytes) 0 flags [none] length: 48 192.168.0.11 > 192.168.0.255) ns3::UdpHeader (length: 28 654 > 654) ns3::aodv::TypeHeader (RREP) ns3::aodv::RrepHeader (destination: ipv4 192.168.0.11 sequence number 0 source ipv4 192.168.0.11 lifetime 2000 acknowledgment required flag 0) ns3::WifiMacTrailer ()
t 1.091 /NodeList/14/DeviceList/0/$ns3::WifiNetDevice/Phy/State/Tx ns3::WifiMacHeader (DATA ToDS=0, FromDS=0, MoreFrag=0, Retry=0, MoreData=0 Duration/ID=0us, DA=ff:ff:ff:ff:ff:ff, SA=00:00:00:00:00:0f, BSSID=00:00:00:00:00:0f, FragNumber=0, SeqNumber=1) ns3::LlcSnapHeader (type 0x800) ns3::Ipv4Header (tos 0x0 DSCP Default ECN Not-ECT ttl 1 id 1 protocol 17 offset (bytes) 0 flags [none] length: 48 192.168.0.15 > 192.168.0.255) ns3::UdpHeader (length: 28 654 > 654) ns3::aodv::TypeHeader (RREP) ns3::aodv::RrepHeader (destination: ipv4 192.168.0.15 sequence number 0 source ipv4 192.168.0.15 lifetime 2000 acknowledgment required flag 0) ns3::WifiMacTrailer ()
t 1.095 /NodeList/7/DeviceList/0/$ns3::WifiNetDevice/Phy/State/Tx ns3::WifiMacHeader (DATA ToDS=0, FromDS=0, MoreFrag=0, Retry=0, MoreData=0 Duration/ID=0us, DA=ff:ff:ff:ff:ff:ff, SA=00:00:00:00:00:08, BSSID=00:00:00:00:00:08, FragNumber=0, SeqNumber=1) ns3::LlcSnapHeader (type 0x800) ns3::Ipv4Header (tos 0x0 DSCP Default ECN Not-ECT ttl 1 id 1 protocol 17 offset (bytes) 0 flags [none] length: 48 192.168.0.8 > 192.168.0.255) ns3::UdpHeader (length: 28 654 > 654) ns3::aodv::TypeHeader (RREP) ns3::aodv::RrepHeader (destination: ipv4 192.168.0.8 sequence number 0 source ipv4 192.168.0.8 lifetime 2000 acknowledgment required flag 0) ns3::WifiMacTrailer ()
t 1.098 /NodeList/0/DeviceList/0/$ns3::WifiNetDevice/Phy/State/Tx ns3::WifiMacHeader (DATA ToDS=0, FromDS=0, MoreFrag=0, Retry=0, MoreData=0 Duration/ID=0us, DA=ff:ff:ff:ff:ff:ff, SA=00:00:00:00:00:01, BSSID=00:00:00:00:00:01, FragNumber=0, SeqNumber=1) ns3::LlcSnapHeader (type 0x800) ns3::Ipv4Header (tos 0x0 DSCP Default ECN Not-ECT ttl 1 id 1 protocol 17 offset (bytes) 0 flags [none] length: 48 192.168.0.1 > 192.168.0.255) ns3::UdpHeader (length: 28 654 > 654) ns3::aodv::TypeHeader (RREP) ns3::aodv::RrepHeader (destination: ipv4 192.168.0.1 sequence number 0 source ipv4 192.168.0.1 lifetime 2000 acknowledgment required flag 0) ns3::WifiMacTrailer ()
t 1.102 /NodeList/1/DeviceList/0/$ns3::WifiNetDevice/Phy/State/Tx ns3::WifiMacHeader (DATA ToDS=0, FromDS=0, MoreFrag=0, Retry=0, MoreData=0 Duration/ID=0us, DA=ff:ff:ff:ff:ff:ff, SA=00:00:00:00:00:02, BSSID=00:00:00:00:00:02, FragNumber=0, SeqNumber=1) ns3::LlcSnapHeader (type 0x800) ns3::Ipv4Header (tos 0x0 DSCP Default ECN Not-ECT ttl 1 id 1 protocol 17 offset (bytes) 0 flags [none] length: 48 192.168.0.2 > 192.168.0.255) ns3::UdpHeader (length: 28 654 > 654) ns3::aodv::TypeHeader (RREP) ns3::aodv::RrepHeader (destination: ipv4 192.168.0.2 sequence number 0 source ipv4 192.168.0.2 lifetime 2000 acknowledgment required flag 0) ns3::WifiMacTrailer ()
t 2.004 /NodeList/1/DeviceList/0/$ns3::WifiNetDevice/Phy/State/Tx ns3::WifiMacHeader (DATA ToDS=0, FromDS=0, MoreFrag=0, Retry=0, MoreData=0 Duration/ID=0us, DA=ff:ff:ff:ff:ff:ff, SA=00:00:00:00:00:02, BSSID=00:00:00:00:00:02, FragNumber=0, SeqNumber=2) ns3::LlcSnapHeader (type 0x800) ns3::Ipv4Header (tos 0x0 DSCP Default ECN Not-ECT ttl 1 id 2 protocol 17 offset (bytes) 0 flags [none] length: 52 192.168.0.2 > 192.168.0.255) ns3::UdpHeader (length: 32 654 > 654) ns3::aodv::TypeHeader (RREQ) ns3::aodv::RreqHeader (RREQ ID 1 destination: ipv4 192.168.0.1 sequence number 0 source: ipv4 192.168.0.2 sequence number 1 flags: Gratuitous RREP 1 Destination only 0 Unknown sequence number 1) ns3::WifiMacTrailer ()
t 2.011 /NodeList/15/DeviceList/0/$ns3::WifiNetDevice/Phy/State/Tx ns3::WifiMacHeader (DATA ToDS=0, FromDS=0, MoreFrag=0, Retry=0, MoreData=0 Duration/ID=0us, DA=ff:ff:ff:ff:ff:ff, SA=00:00:00:00:00:10, BSSID=00:00:00:00:00:10, FragNumber=0, SeqNumber=2) ns3::LlcSnapHeader (type 0x800) ns3::Ipv4Header (tos 0x0 DSCP Default ECN Not-ECT ttl 1 id 2 protocol 17 offset (bytes) 0 flags [none] length: 48 192.168.0.16 > 192.168.0.255) ns3::UdpHeader (length: 28 654 > 654) ns3::aodv::TypeHeader (RREP) ns3::aodv::RrepHeader (destination: ipv4 192.168.0.16 sequence number 0 source ipv4 192.168.0.16 lifetime 2000 acknowledgment required flag 0) ns3::WifiMacTrailer ()
t 2.013 /NodeList/9/DeviceList/0/$ns3::WifiNetDevice/Phy/State/Tx ns3::WifiMacHeader (DATA ToDS=0, FromDS=0, MoreFrag=0, Retry=0, MoreData=0 Duration/ID=0us, DA=ff:ff:ff:ff:ff:ff, SA=00:00:00:00:00:0a, BSSID=00:00:00:00:00:0a, FragNumber=0, SeqNumber=2) ns3::LlcSnapHeader (type 0x800) ns3::Ipv4Header (tos 0x0 DSCP Default ECN Not-ECT ttl 1 id 2 protocol 17 offset (bytes) 0 flags [none] length: 48 192.168.0.10 > 192.168.0.255) ns3::UdpHeader (length: 28 654 > 654) ns3::aodv::TypeHeader (RREP) ns3::aodv::RrepHeader (destination: ipv4 192.168.0.10 sequence number 0 source ipv4 192.168.0.10 lifetime 2000 acknowledgment required flag 0) ns3::WifiMacTrailer ()
t 2.017 /NodeList/8/DeviceList/0/$ns3::WifiNetDevice/Phy/State/Tx ns3::WifiMacHeader (DATA ToDS=0, FromDS=0, MoreFrag=0, Retry=0, MoreData=0 Duration/ID=0us, DA=ff:ff:ff:ff:ff:ff, SA=00:00:00:00:00:09, BSSID=00:00:00:00:00:09, FragNumber=0, SeqNumber=2) ns3::LlcSnapHeader (type 0x800) ns3::Ipv4Header (tos 0x0 DSCP Default ECN Not-ECT ttl 1 id 2 protocol 17 offset (bytes) 0 flags [none] length: 48 192.168.0.9 > 192.168.0.255) ns3::UdpHeader (length: 28 654 > 654) ns3::aodv::TypeHeader (RREP) ns3::aodv::RrepHeader (destination: ipv4 192.168.0.9 sequence number 0 source ipv4 192.168.0.9 lifetime 2000 acknowledgment required flag 0) ns3::WifiMacTrailer ()
t 2.047 /NodeList/2/DeviceList/0/$ns3::WifiNetDevice/Phy/State/Tx ns3::WifiMacHeader (DATA ToDS=0, FromDS=0, MoreFrag=0, Retry=0, MoreData=0 Duration/ID=0us, DA=ff:ff:ff:ff:ff:ff, SA=00:00:00:00:00:03, BSSID=00:00:00:00:00:03, FragNumber=0, SeqNumber=2) ns3::LlcSnapHeader (type 0x800) ns3::Ipv4Header (tos 0x0 DSCP Default ECN Not-ECT ttl 1 id 2 protocol 17 offset (bytes) 0 flags [none] length: 48 192.168.0.3 > 192.168.0.255) ns3::UdpHeader (length: 28 654 > 654) ns3::aodv::TypeHeader (RREP) ns3::aodv::RrepHeader (destination: ipv4 192.168.0.3 sequence number 0 source ipv4 192.168.0.3 lifetime 2000 acknowledgment required flag 0) ns3::WifiMacTrailer ()