+ 2.0098 /NodeList/0/DeviceList/0/$ns3::PointToPointNetDevice/TxQueue/Enqueue ns3::PppHeader (Point-to-Point Protocol: IP (0x0021)) ns3::Ipv4Header (tos 0x0 DSCP Default ECN Not-ECT ttl 63 id 0 protocol 17 offset (bytes) 0 flags [MF] length: 1500 10.1.3.3 > 10.1.2.4) ns3::UdpHeader (length: 4104 49153 > 9) Payload Fragment [0:1472]
- 2.0098 /NodeList/0/DeviceList/0/$ns3::PointToPointNetDevice/TxQueue/Dequeue ns3::PppHeader (Point-to-Point Protocol: IP (0x0021)) ns3::Ipv4Header (tos 0x0 DSCP Default ECN Not-ECT ttl 63 id 0 protocol 17 offset (bytes) 0 flags [MF] length: 1500 10.1.3.3 > 10.1.2.4) ns3::UdpHeader (length: 4104 49153 > 9) Payload Fragment [0:1472]
+ 2.0098 /NodeList/0/DeviceList/0/$ns3::PointToPointNetDevice/TxQueue/Enqueue ns3::PppHeader (Point-to-Point Protocol: IP (0x0021)) ns3::Ipv4Header (tos 0x0 DSCP Default ECN Not-ECT ttl 63 id 0 protocol 17 offset (bytes) 1480 flags [MF] length: 812 10.1.3.3 > 10.1.2.4) Payload Fragment [1472:2264]
- 2.01221 /NodeList/0/DeviceList/0/$ns3::PointToPointNetDevice/TxQueue/Dequeue ns3::PppHeader (Point-to-Point Protocol: IP (0x0021)) ns3::Ipv4Header (tos 0x0 DSCP Default ECN Not-ECT ttl 63 id 0 protocol 17 offset (bytes) 1480 flags [MF] length: 812 10.1.3.3 > 10.1.2.4) Payload Fragment [1472:2264]
+ 2.01254 /NodeList/0/DeviceList/0/$ns3::PointToPointNetDevice/TxQueue/Enqueue ns3::PppHeader (Point-to-Point Protocol: IP (0x0021)) ns3::Ipv4Header (tos 0x0 DSCP Default ECN Not-ECT ttl 63 id 0 protocol 17 offset (bytes) 0 flags [MF] length: 1500 10.1.3.3 > 10.1.2.4) Payload Fragment [2264:3744]
+ 2.01254 /NodeList/0/DeviceList/0/$ns3::PointToPointNetDevice/TxQueue/Enqueue ns3::PppHeader (Point-to-Point Protocol: IP (0x0021)) ns3::Ipv4Header (tos 0x0 DSCP Default ECN Not-ECT ttl 63 id 0 protocol 17 offset (bytes) 1480 flags [none] length: 372 10.1.3.3 > 10.1.2.4) Payload Fragment [3744:4096]
- 2.01351 /NodeList/0/DeviceList/0/$ns3::PointToPointNetDevice/TxQueue/Dequeue ns3::PppHeader (Point-to-Point Protocol: IP (0x0021)) ns3::Ipv4Header (tos 0x0 DSCP Default ECN Not-ECT ttl 63 id 0 protocol 17 offset (bytes) 0 flags [MF] length: 1500 10.1.3.3 > 10.1.2.4) Payload Fragment [2264:3744]
r 2.01421 /NodeList/1/DeviceList/0/$ns3::PointToPointNetDevice/MacRx ns3::PppHeader (Point-to-Point Protocol: IP (0x0021)) ns3::Ipv4Header (tos 0x0 DSCP Default ECN Not-ECT ttl 63 id 0 protocol 17 offset (bytes) 0 flags [MF] length: 1500 10.1.3.3 > 10.1.2.4) ns3::UdpHeader (length: 4104 49153 > 9) Payload Fragment [0:1472]
r 2.01551 /NodeList/1/DeviceList/0/$ns3::PointToPointNetDevice/MacRx ns3::PppHeader (Point-to-Point Protocol: IP (0x0021)) ns3::Ipv4Header (tos 0x0 DSCP Default ECN Not-ECT ttl 63 id 0 protocol 17 offset (bytes) 1480 flags [MF] length: 812 10.1.3.3 > 10.1.2.4) Payload Fragment [1472:2264]
- 2.01591 /NodeList/0/DeviceList/0/$ns3::PointToPointNetDevice/TxQueue/Dequeue ns3::PppHeader (Point-to-Point Protocol: IP (0x0021)) ns3::Ipv4Header (tos 0x0 DSCP Default ECN Not-ECT ttl 63 id 0 protocol 17 offset (bytes) 1480 flags [none] length: 372 10.1.3.3 > 10.1.2.4) Payload Fragment [3744:4096]
r 2.01791 /NodeList/1/DeviceList/0/$ns3::PointToPointNetDevice/MacRx ns3::PppHeader (Point-to-Point Protocol: IP (0x0021)) ns3::Ipv4Header (tos 0x0 DSCP Default ECN Not-ECT ttl 63 id 0 protocol 17 offset (bytes) 0 flags [MF] length: 1500 10.1.3.3 > 10.1.2.4) Payload Fragment [2264:3744]
r 2.01851 /NodeList/1/DeviceList/0/$ns3::PointToPointNetDevice/MacRx ns3::PppHeader (Point-to-Point Protocol: IP (0x0021)) ns3::Ipv4Header (tos 0x0 DSCP Default ECN Not-ECT ttl 63 id 0 protocol 17 offset (bytes) 1480 flags [none] length: 372 10.1.3.3 > 10.1.2.4) Payload Fragment [3744:4096]
+ 3.00313 /NodeList/0/DeviceList/0/$ns3::PointToPointNetDevice/TxQueue/Enqueue ns3::PppHeader (Point-to-Point Protocol: IP (0x0021)) ns3::Ipv4Header (tos 0x0 DSCP Default ECN Not-ECT ttl 63 id 1 protocol 17 offset (bytes) 0 flags [MF] length: 1500 10.1.3.3 > 10.1.2.4) ns3::UdpHeader (length: 4104 49153 > 9) Payload Fragment [0:1472]
- 3.00313 /NodeList/0/DeviceList/0/$ns3::PointToPointNetDevice/TxQueue/Dequeue ns3::PppHeader (Point-to-Point Protocol: IP (0x0021)) ns3::Ipv4Header (tos 0x0 DSCP Default ECN Not-ECT ttl 63 id 1 protocol 17 offset (bytes) 0 flags [MF] length: 1500 10.1.3.3 > 10.1.2.4) ns3::UdpHeader (length: 4104 49153 > 9) Payload Fragment [0:1472]
+ 3.00313 /NodeList/0/DeviceList/0/$ns3::PointToPointNetDevice/TxQueue/Enqueue ns3::PppHeader (Point-to-Point Protocol: IP (0x0021)) ns3::Ipv4Header (tos 0x0 DSCP Default ECN Not-ECT ttl 63 id 1 protocol 17 offset (bytes) 1480 flags [MF] length: 812 10.1.3.3 > 10.1.2.4) Payload Fragment [1472:2264]
- 3.00553 /NodeList/0/DeviceList/0/$ns3::PointToPointNetDevice/TxQueue/Dequeue ns3::PppHeader (Point-to-Point Protocol: IP (0x0021)) ns3::Ipv4Header (tos 0x0 DSCP Default ECN Not-ECT ttl 63 id 1 protocol 17 offset (bytes) 1480 flags [MF] length: 812 10.1.3.3 > 10.1.2.4) Payload Fragment [1472:2264]
+ 3.00586 /NodeList/0/DeviceList/0/$ns3::PointToPointNetDevice/TxQueue/Enqueue ns3::PppHeader (Point-to-Point Protocol: IP (0x0021)) ns3::Ipv4Header (tos 0x0 DSCP Default ECN Not-ECT ttl 63 id 1 protocol 17 offset (bytes) 0 flags [MF] length: 1500 10.1.3.3 > 10.1.2.4) Payload Fragment [2264:3744]
+ 3.00586 /NodeList/0/DeviceList/0/$ns3::PointToPointNetDevice/TxQueue/Enqueue ns3::PppHeader (Point-to-Point Protocol: IP (0x0021)) ns3::Ipv4Header (tos 0x0 DSCP Default ECN Not-ECT ttl 63 id 1 protocol 17 offset (bytes) 1480 flags [none] length: 372 10.1.3.3 > 10.1.2.4) Payload Fragment [3744:4096]
- 3.00683 /NodeList/0/DeviceList/0/$ns3::PointToPointNetDevice/TxQueue/Dequeue ns3::PppHeader (Point-to-Point Protocol: IP (0x0021)) ns3::Ipv4Header (tos 0x0 DSCP Default ECN Not-ECT ttl 63 id 1 protocol 17 offset (bytes) 0 flags [MF] length: 1500 10.1.3.3 > 10.1.2.4) Payload Fragment [2264:3744]
r 3.00753 /NodeList/1/DeviceList/0/$ns3::PointToPointNetDevice/MacRx ns3::PppHeader (Point-to-Point Protocol: IP (0x0021)) ns3::Ipv4Header (tos 0x0 DSCP Default ECN Not-ECT ttl 63 id 1 protocol 17 offset (bytes) 0 flags [MF] length: 1500 10.1.3.3 > 10.1.2.4) ns3::UdpHeader (length: 4104 49153 > 9) Payload Fragment [0:1472]
r 3.00883 /NodeList/1/DeviceList/0/$ns3::PointToPointNetDevice/MacRx ns3::PppHeader (Point-to-Point Protocol: IP (0x0021)) ns3::Ipv4Header (tos 0x0 DSCP Default ECN Not-ECT ttl 63 id 1 protocol 17 offset (bytes) 1480 flags [MF] length: 812 10.1.3.3 > 10.1.2.4) Payload Fragment [1472:2264]
- 3.00924 /NodeList/0/DeviceList/0/$ns3::PointToPointNetDevice/TxQueue/Dequeue ns3::PppHeader (Point-to-Point Protocol: IP (0x0021)) ns3::Ipv4Header (tos 0x0 DSCP Default ECN Not-ECT ttl 63 id 1 protocol 17 offset (bytes) 1480 flags [none] length: 372 10.1.3.3 > 10.1.2.4) Payload Fragment [3744:4096]
r 3.01124 /NodeList/1/DeviceList/0/$ns3::PointToPointNetDevice/MacRx ns3::PppHeader (Point-to-Point Protocol: IP (0x0021)) ns3::Ipv4Header (tos 0x0 DSCP Default ECN Not-ECT ttl 63 id 1 protocol 17 offset (bytes) 0 flags [MF] length: 1500 10.1.3.3 > 10.1.2.4) Payload Fragment [2264:3744]
r 3.01184 /NodeList/1/DeviceList/0/$ns3::PointToPointNetDevice/MacRx ns3::PppHeader (Point-to-Point Protocol: IP (0x0021)) ns3::Ipv4Header (tos 0x0 DSCP Default ECN Not-ECT ttl 63 id 1 protocol 17 offset (bytes) 1480 flags [none] length: 372 10.1.3.3 > 10.1.2.4) Payload Fragment [3744:4096]
+ 3.01703 /NodeList/1/DeviceList/0/$ns3::PointToPointNetDevice/TxQueue/Enqueue ns3::PppHeader (Point-to-Point Protocol: IP (0x0021)) ns3::Ipv4Header (tos 0x0 DSCP Default ECN Not-ECT ttl 63 id 0 protocol 17 offset (bytes) 0 flags [MF] length: 1500 10.1.2.4 > 10.1.3.3) ns3::UdpHeader (length: 2272 9 > 49153) Payload Fragment [0:1472]
- 3.01703 /NodeList/1/DeviceList/0/$ns3::PointToPointNetDevice/TxQueue/Dequeue ns3::PppHeader (Point-to-Point Protocol: IP (0x0021)) ns3::Ipv4Header (tos 0x0 DSCP Default ECN Not-ECT ttl 63 id 0 protocol 17 offset (bytes) 0 flags [MF] length: 1500 10.1.2.4 > 10.1.3.3) ns3::UdpHeader (length: 2272 9 > 49153) Payload Fragment [0:1472]
+ 3.0171 /NodeList/1/DeviceList/0/$ns3::PointToPointNetDevice/TxQueue/Enqueue ns3::PppHeader (Point-to-Point Protocol: IP (0x0021)) ns3::Ipv4Header (tos 0x0 DSCP Default ECN Not-ECT ttl 63 id 0 protocol 17 offset (bytes) 1480 flags [none] length: 812 10.1.2.4 > 10.1.3.3) Payload Fragment [1472:2264]
- 3.01943 /NodeList/1/DeviceList/0/$ns3::PointToPointNetDevice/TxQueue/Dequeue ns3::PppHeader (Point-to-Point Protocol: IP (0x0021)) ns3::Ipv4Header (tos 0x0 DSCP Default ECN Not-ECT ttl 63 id 0 protocol 17 offset (bytes) 1480 flags [none] length: 812 10.1.2.4 > 10.1.3.3) Payload Fragment [1472:2264]
r 3.02143 /NodeList/0/DeviceList/0/$ns3::PointToPointNetDevice/MacRx ns3::PppHeader (Point-to-Point Protocol: IP (0x0021)) ns3::Ipv4Header (tos 0x0 DSCP Default ECN Not-ECT ttl 63 id 0 protocol 17 offset (bytes) 0 flags [MF] length: 1500 10.1.2.4 > 10.1.3.3) ns3::UdpHeader (length: 2272 9 > 49153) Payload Fragment [0:1472]
r 3.02273 /NodeList/0/DeviceList/0/$ns3::PointToPointNetDevice/MacRx ns3::PppHeader (Point-to-Point Protocol: IP (0x0021)) ns3::Ipv4Header (tos 0x0 DSCP Default ECN Not-ECT ttl 63 id 0 protocol 17 offset (bytes) 1480 flags [none] length: 812 10.1.2.4 > 10.1.3.3) Payload Fragment [1472:2264]
+ 4.00313 /NodeList/0/DeviceList/0/$ns3::PointToPointNetDevice/TxQueue/Enqueue ns3::PppHeader (Point-to-Point Protocol: IP (0x0021)) ns3::Ipv4Header (tos 0x0 DSCP Default ECN Not-ECT ttl 63 id 2 protocol 17 offset (bytes) 0 flags [MF] length: 1500 10.1.3.3 > 10.1.2.4) ns3::UdpHeader (length: 4104 49153 > 9) Payload Fragment [0:1472]
- 4.00313 /NodeList/0/DeviceList/0/$ns3::PointToPointNetDevice/TxQueue/Dequeue ns3::PppHeader (Point-to-Point Protocol: IP (0x0021)) ns3::Ipv4Header (tos 0x0 DSCP Default ECN Not-ECT ttl 63 id 2 protocol 17 offset (bytes) 0 flags [MF] length: 1500 10.1.3.3 > 10.1.2.4) ns3::UdpHeader (length: 4104 49153 > 9) Payload Fragment [0:1472]
+ 4.00313 /NodeList/0/DeviceList/0/$ns3::PointToPointNetDevice/TxQueue/Enqueue ns3::PppHeader (Point-to-Point Protocol: IP (0x0021)) ns3::Ipv4Header (tos 0x0 DSCP Default ECN Not-ECT ttl 63 id 2 protocol 17 offset (bytes) 1480 flags [MF] length: 812 10.1.3.3 > 10.1.2.4) Payload Fragment [1472:2264]
- 4.00553 /NodeList/0/DeviceList/0/$ns3::PointToPointNetDevice/TxQueue/Dequeue ns3::PppHeader (Point-to-Point Protocol: IP (0x0021)) ns3::Ipv4Header (tos 0x0 DSCP Default ECN Not-ECT ttl 63 id 2 protocol 17 offset (bytes) 1480 flags [MF] length: 812 10.1.3.3 > 10.1.2.4) Payload Fragment [1472:2264]
+ 4.00587 /NodeList/0/DeviceList/0/$ns3::PointToPointNetDevice/TxQueue/Enqueue ns3::PppHeader (Point-to-Point Protocol: IP (0x0021)) ns3::Ipv4Header (tos 0x0 DSCP Default ECN Not-ECT ttl 63 id 2 protocol 17 offset (bytes) 0 flags [MF] length: 1500 10.1.3.3 > 10.1.2.4) Payload Fragment [2264:3744]
+ 4.00587 /NodeList/0/DeviceList/0/$ns3::PointToPointNetDevice/TxQueue/Enqueue ns3::PppHeader (Point-to-Point Protocol: IP (0x0021)) ns3::Ipv4Header (tos 0x0 DSCP Default ECN Not-ECT ttl 63 id 2 protocol 17 offset (bytes) 1480 flags [none] length: 372 10.1.3.3 > 10.1.2.4) Payload Fragment [3744:4096]
- 4.00683 /NodeList/0/DeviceList/0/$ns3::PointToPointNetDevice/TxQueue/Dequeue ns3::PppHeader (Point-to-Point Protocol: IP (0x0021)) ns3::Ipv4Header (tos 0x0 DSCP Default ECN Not-ECT ttl 63 id 2 protocol 17 offset (bytes) 0 flags [MF] length: 1500 10.1.3.3 > 10.1.2.4) Payload Fragment [2264:3744]
r 4.00753 /NodeList/1/DeviceList/0/$ns3::PointToPointNetDevice/MacRx ns3::PppHeader (Point-to-Point Protocol: IP (0x0021)) ns3::Ipv4Header (tos 0x0 DSCP Default ECN Not-ECT ttl 63 id 2 protocol 17 offset (bytes) 0 flags [MF] length: 1500 10.1.3.3 > 10.1.2.4) ns3::UdpHeader (length: 4104 49153 > 9) Payload Fragment [0:1472]
r 4.00883 /NodeList/1/DeviceList/0/$ns3::PointToPointNetDevice/MacRx ns3::PppHeader (Point-to-Point Protocol: IP (0x0021)) ns3::Ipv4Header (tos 0x0 DSCP Default ECN Not-ECT ttl 63 id 2 protocol 17 offset (bytes) 1480 flags [MF] length: 812 10.1.3.3 > 10.1.2.4) Payload Fragment [1472:2264]
- 4.00924 /NodeList/0/DeviceList/0/$ns3::PointToPointNetDevice/TxQueue/Dequeue ns3::PppHeader (Point-to-Point Protocol: IP (0x0021)) ns3::Ipv4Header (tos 0x0 DSCP Default ECN Not-ECT ttl 63 id 2 protocol 17 offset (bytes) 1480 flags [none] length: 372 10.1.3.3 > 10.1.2.4) Payload Fragment [3744:4096]
r 4.01124 /NodeList/1/DeviceList/0/$ns3::PointToPointNetDevice/MacRx ns3::PppHeader (Point-to-Point Protocol: IP (0x0021)) ns3::Ipv4Header (tos 0x0 DSCP Default ECN Not-ECT ttl 63 id 2 protocol 17 offset (bytes) 0 flags [MF] length: 1500 10.1.3.3 > 10.1.2.4) Payload Fragment [2264:3744]
r 4.01184 /NodeList/1/DeviceList/0/$ns3::PointToPointNetDevice/MacRx ns3::PppHeader (Point-to-Point Protocol: IP (0x0021)) ns3::Ipv4Header (tos 0x0 DSCP Default ECN Not-ECT ttl 63 id 2 protocol 17 offset (bytes) 1480 flags [none] length: 372 10.1.3.3 > 10.1.2.4) Payload Fragment [3744:4096]
+ 4.012 /NodeList/1/DeviceList/0/$ns3::PointToPointNetDevice/TxQueue/Enqueue ns3::PppHeader (Point-to-Point Protocol: IP (0x0021)) ns3::Ipv4Header (tos 0x0 DSCP Default ECN Not-ECT ttl 63 id 1 protocol 17 offset (bytes) 0 flags [MF] length: 1500 10.1.2.4 > 10.1.3.3) ns3::UdpHeader (length: 2272 9 > 49153) Payload Fragment [0:1472]
- 4.012 /NodeList/1/DeviceList/0/$ns3::PointToPointNetDevice/TxQueue/Dequeue ns3::PppHeader (Point-to-Point Protocol: IP (0x0021)) ns3::Ipv4Header (tos 0x0 DSCP Default ECN Not-ECT ttl 63 id 1 protocol 17 offset (bytes) 0 flags [MF] length: 1500 10.1.2.4 > 10.1.3.3) ns3::UdpHeader (length: 2272 9 > 49153) Payload Fragment [0:1472]
+ 4.01208 /NodeList/1/DeviceList/0/$ns3::PointToPointNetDevice/TxQueue/Enqueue ns3::PppHeader (Point-to-Point Protocol: IP (0x0021)) ns3::Ipv4Header (tos 0x0 DSCP Default ECN Not-ECT ttl 63 id 1 protocol 17 offset (bytes) 1480 flags [none] length: 812 10.1.2.4 > 10.1.3.3) Payload Fragment [1472:2264]
- 4.01441 /NodeList/1/DeviceList/0/$ns3::PointToPointNetDevice/TxQueue/Dequeue ns3::PppHeader (Point-to-Point Protocol: IP (0x0021)) ns3::Ipv4Header (tos 0x0 DSCP Default ECN Not-ECT ttl 63 id 1 protocol 17 offset (bytes) 1480 flags [none] length: 812 10.1.2.4 > 10.1.3.3) Payload Fragment [1472:2264]
r 4.01641 /NodeList/0/DeviceList/0/$ns3::PointToPointNetDevice/MacRx ns3::PppHeader (Point-to-Point Protocol: IP (0x0021)) ns3::Ipv4Header (tos 0x0 DSCP Default ECN Not-ECT ttl 63 id 1 protocol 17 offset (bytes) 0 flags [MF] length: 1500 10.1.2.4 > 10.1.3.3) ns3::UdpHeader (length: 2272 9 > 49153) Payload Fragment [0:1472]
r 4.01771 /NodeList/0/DeviceList/0/$ns3::PointToPointNetDevice/MacRx ns3::PppHeader (Point-to-Point Protocol: IP (0x0021)) ns3::Ipv4Header (tos 0x0 DSCP Default ECN Not-ECT ttl 63 id 1 protocol 17 offset (bytes) 1480 flags [none] length: 812 10.1.2.4 > 10.1.3.3) Payload Fragment [1472:2264]
+ 5.00313 /NodeList/0/DeviceList/0/$ns3::PointToPointNetDevice/TxQueue/Enqueue ns3::PppHeader (Point-to-Point Protocol: IP (0x0021)) ns3::Ipv4Header (tos 0x0 DSCP Default ECN Not-ECT ttl 63 id 3 protocol 17 offset (bytes) 0 flags [MF] length: 1500 10.1.3.3 > 10.1.2.4) ns3::UdpHeader (length: 4104 49153 > 9) Payload Fragment [0:1472]
- 5.00313 /NodeList/0/DeviceList/0/$ns3::PointToPointNetDevice/TxQueue/Dequeue ns3::PppHeader (Point-to-Point Protocol: IP (0x0021)) ns3::Ipv4Header (tos 0x0 DSCP Default ECN Not-ECT ttl 63 id 3 protocol 17 offset (bytes) 0 flags [MF] length: 1500 10.1.3.3 > 10.1.2.4) ns3::UdpHeader (length: 4104 49153 > 9) Payload Fragment [0:1472]
+ 5.00313 /NodeList/0/DeviceList/0/$ns3::PointToPointNetDevice/TxQueue/Enqueue ns3::PppHeader (Point-to-Point Protocol: IP (0x0021)) ns3::Ipv4Header (tos 0x0 DSCP Default ECN Not-ECT ttl 63 id 3 protocol 17 offset (bytes) 1480 flags [MF] length: 812 10.1.3.3 > 10.1.2.4) Payload Fragment [1472:2264]
+ 5.00505 /NodeList/0/DeviceList/0/$ns3::PointToPointNetDevice/TxQueue/Enqueue ns3::PppHeader (Point-to-Point Protocol: IP (0x0021)) ns3::Ipv4Header (tos 0x0 DSCP Default ECN Not-ECT ttl 63 id 3 protocol 17 offset (bytes) 0 flags [MF] length: 1500 10.1.3.3 > 10.1.2.4) Payload Fragment [2264:3744]
+ 5.00505 /NodeList/0/DeviceList/0/$ns3::PointToPointNetDevice/TxQueue/Enqueue ns3::PppHeader (Point-to-Point Protocol: IP (0x0021)) ns3::Ipv4Header (tos 0x0 DSCP Default ECN Not-ECT ttl 63 id 3 protocol 17 offset (bytes) 1480 flags [none] length: 372 10.1.3.3 > 10.1.2.4) Payload Fragment [3744:4096]
- 5.00553 /NodeList/0/DeviceList/0/$ns3::PointToPointNetDevice/TxQueue/Dequeue ns3::PppHeader (Point-to-Point Protocol: IP (0x0021)) ns3::Ipv4Header (tos 0x0 DSCP Default ECN Not-ECT ttl 63 id 3 protocol 17 offset (bytes) 1480 flags [MF] length: 812 10.1.3.3 > 10.1.2.4) Payload Fragment [1472:2264]
- 5.00683 /NodeList/0/DeviceList/0/$ns3::PointToPointNetDevice/TxQueue/Dequeue ns3::PppHeader (Point-to-Point Protocol: IP (0x0021)) ns3::Ipv4Header (tos 0x0 DSCP Default ECN Not-ECT ttl 63 id 3 protocol 17 offset (bytes) 0 flags [MF] length: 1500 10.1.3.3 > 10.1.2.4) Payload Fragment [2264:3744]
r 5.00753 /NodeList/1/DeviceList/0/$ns3::PointToPointNetDevice/MacRx ns3::PppHeader (Point-to-Point Protocol: IP (0x0021)) ns3::Ipv4Header (tos 0x0 DSCP Default ECN Not-ECT ttl 63 id 3 protocol 17 offset (bytes) 0 flags [MF] length: 1500 10.1.3.3 > 10.1.2.4) ns3::UdpHeader (length: 4104 49153 > 9) Payload Fragment [0:1472]
r 5.00883 /NodeList/1/DeviceList/0/$ns3::PointToPointNetDevice/MacRx ns3::PppHeader (Point-to-Point Protocol: IP (0x0021)) ns3::Ipv4Header (tos 0x0 DSCP Default ECN Not-ECT ttl 63 id 3 protocol 17 offset (bytes) 1480 flags [MF] length: 812 10.1.3.3 > 10.1.2.4) Payload Fragment [1472:2264]
- 5.00924 /NodeList/0/DeviceList/0/$ns3::PointToPointNetDevice/TxQueue/Dequeue ns3::PppHeader (Point-to-Point Protocol: IP (0x0021)) ns3::Ipv4Header (tos 0x0 DSCP Default ECN Not-ECT ttl 63 id 3 protocol 17 offset (bytes) 1480 flags [none] length: 372 10.1.3.3 > 10.1.2.4) Payload Fragment [3744:4096]
r 5.01124 /NodeList/1/DeviceList/0/$ns3::PointToPointNetDevice/MacRx ns3::PppHeader (Point-to-Point Protocol: IP (0x0021)) ns3::Ipv4Header (tos 0x0 DSCP Default ECN Not-ECT ttl 63 id 3 protocol 17 offset (bytes) 0 flags [MF] length: 1500 10.1.3.3 > 10.1.2.4) Payload Fragment [2264:3744]
r 5.01184 /NodeList/1/DeviceList/0/$ns3::PointToPointNetDevice/MacRx ns3::PppHeader (Point-to-Point Protocol: IP (0x0021)) ns3::Ipv4Header (tos 0x0 DSCP Default ECN Not-ECT ttl 63 id 3 protocol 17 offset (bytes) 1480 flags [none] length: 372 10.1.3.3 > 10.1.2.4) Payload Fragment [3744:4096]
+ 5.012 /NodeList/1/DeviceList/0/$ns3::PointToPointNetDevice/TxQueue/Enqueue ns3::PppHeader (Point-to-Point Protocol: IP (0x0021)) ns3::Ipv4Header (tos 0x0 DSCP Default ECN Not-ECT ttl 63 id 2 protocol 17 offset (bytes) 0 flags [MF] length: 1500 10.1.2.4 > 10.1.3.3) ns3::UdpHeader (length: 2272 9 > 49153) Payload Fragment [0:1472]
- 5.012 /NodeList/1/DeviceList/0/$ns3::PointToPointNetDevice/TxQueue/Dequeue ns3::PppHeader (Point-to-Point Protocol: IP (0x0021)) ns3::Ipv4Header (tos 0x0 DSCP Default ECN Not-ECT ttl 63 id 2 protocol 17 offset (bytes) 0 flags [MF] length: 1500 10.1.2.4 > 10.1.3.3) ns3::UdpHeader (length: 2272 9 > 49153) Payload Fragment [0:1472]
+ 5.01209 /NodeList/1/DeviceList/0/$ns3::PointToPointNetDevice/TxQueue/Enqueue ns3::PppHeader (Point-to-Point Protocol: IP (0x0021)) ns3::Ipv4Header (tos 0x0 DSCP Default ECN Not-ECT ttl 63 id 2 protocol 17 offset (bytes) 1480 flags [none] length: 812 10.1.2.4 > 10.1.3.3) Payload Fragment [1472:2264]
- 5.01441 /NodeList/1/DeviceList/0/$ns3::PointToPointNetDevice/TxQueue/Dequeue ns3::PppHeader (Point-to-Point Protocol: IP (0x0021)) ns3::Ipv4Header (tos 0x0 DSCP Default ECN Not-ECT ttl 63 id 2 protocol 17 offset (bytes) 1480 flags [none] length: 812 10.1.2.4 > 10.1.3.3) Payload Fragment [1472:2264]
r 5.01641 /NodeList/0/DeviceList/0/$ns3::PointToPointNetDevice/MacRx ns3::PppHeader (Point-to-Point Protocol: IP (0x0021)) ns3::Ipv4Header (tos 0x0 DSCP Default ECN Not-ECT ttl 63 id 2 protocol 17 offset (bytes) 0 flags [MF] length: 1500 10.1.2.4 > 10.1.3.3) ns3::UdpHeader (length: 2272 9 > 49153) Payload Fragment [0:1472]
r 5.01771 /NodeList/0/DeviceList/0/$ns3::PointToPointNetDevice/MacRx ns3::PppHeader (Point-to-Point Protocol: IP (0x0021)) ns3::Ipv4Header (tos 0x0 DSCP Default ECN Not-ECT ttl 63 id 2 protocol 17 offset (bytes) 1480 flags [none] length: 812 10.1.2.4 > 10.1.3.3) Payload Fragment [1472:2264]
+ 6.00209 /NodeList/0/DeviceList/0/$ns3::PointToPointNetDevice/TxQueue/Enqueue ns3::PppHeader (Point-to-Point Protocol: IP (0x0021)) ns3::Ipv4Header (tos 0x0 DSCP Default ECN Not-ECT ttl 63 id 4 protocol 17 offset (bytes) 0 flags [MF] length: 1500 10.1.3.3 > 10.1.2.4) ns3::UdpHeader (length: 4104 49153 > 9) Payload Fragment [0:1472]
- 6.00209 /NodeList/0/DeviceList/0/$ns3::PointToPointNetDevice/TxQueue/Dequeue ns3::PppHeader (Point-to-Point Protocol: IP (0x0021)) ns3::Ipv4Header (tos 0x0 DSCP Default ECN Not-ECT ttl 63 id 4 protocol 17 offset (bytes) 0 flags [MF] length: 1500 10.1.3.3 > 10.1.2.4) ns3::UdpHeader (length: 4104 49153 > 9) Payload Fragment [0:1472]
+ 6.00209 /NodeList/0/DeviceList/0/$ns3::PointToPointNetDevice/TxQueue/Enqueue ns3::PppHeader (Point-to-Point Protocol: IP (0x0021)) ns3::Ipv4Header (tos 0x0 DSCP Default ECN Not-ECT ttl 63 id 4 protocol 17 offset (bytes) 1480 flags [MF] length: 812 10.1.3.3 > 10.1.2.4) Payload Fragment [1472:2264]
+ 6.00395 /NodeList/0/DeviceList/0/$ns3::PointToPointNetDevice/TxQueue/Enqueue ns3::PppHeader (Point-to-Point Protocol: IP (0x0021)) ns3::Ipv4Header (tos 0x0 DSCP Default ECN Not-ECT ttl 63 id 4 protocol 17 offset (bytes) 0 flags [MF] length: 1500 10.1.3.3 > 10.1.2.4) Payload Fragment [2264:3744]
+ 6.00395 /NodeList/0/DeviceList/0/$ns3::PointToPointNetDevice/TxQueue/Enqueue ns3::PppHeader (Point-to-Point Protocol: IP (0x0021)) ns3::Ipv4Header (tos 0x0 DSCP Default ECN Not-ECT ttl 63 id 4 protocol 17 offset (bytes) 1480 flags [none] length: 372 10.1.3.3 > 10.1.2.4) Payload Fragment [3744:4096]
- 6.0045 /NodeList/0/DeviceList/0/$ns3::PointToPointNetDevice/TxQueue/Dequeue ns3::PppHeader (Point-to-Point Protocol: IP (0x0021)) ns3::Ipv4Header (tos 0x0 DSCP Default ECN Not-ECT ttl 63 id 4 protocol 17 offset (bytes) 1480 flags [MF] length: 812 10.1.3.3 > 10.1.2.4) Payload Fragment [1472:2264]
- 6.0058 /NodeList/0/DeviceList/0/$ns3::PointToPointNetDevice/TxQueue/Dequeue ns3::PppHeader (Point-to-Point Protocol: IP (0x0021)) ns3::Ipv4Header (tos 0x0 DSCP Default ECN Not-ECT ttl 63 id 4 protocol 17 offset (bytes) 0 flags [MF] length: 1500 10.1.3.3 > 10.1.2.4) Payload Fragment [2264:3744]
r 6.0065 /NodeList/1/DeviceList/0/$ns3::PointToPointNetDevice/MacRx ns3::PppHeader (Point-to-Point Protocol: IP (0x0021)) ns3::Ipv4Header (tos 0x0 DSCP Default ECN Not-ECT ttl 63 id 4 protocol 17 offset (bytes) 0 flags [MF] length: 1500 10.1.3.3 > 10.1.2.4) ns3::UdpHeader (length: 4104 49153 > 9) Payload Fragment [0:1472]
r 6.0078 /NodeList/1/DeviceList/0/$ns3::PointToPointNetDevice/MacRx ns3::PppHeader (Point-to-Point Protocol: IP (0x0021)) ns3::Ipv4Header (tos 0x0 DSCP Default ECN Not-ECT ttl 63 id 4 protocol 17 offset (bytes) 1480 flags [MF] length: 812 10.1.3.3 > 10.1.2.4) Payload Fragment [1472:2264]
- 6.0082 /NodeList/0/DeviceList/0/$ns3::PointToPointNetDevice/TxQueue/Dequeue ns3::PppHeader (Point-to-Point Protocol: IP (0x0021)) ns3::Ipv4Header (tos 0x0 DSCP Default ECN Not-ECT ttl 63 id 4 protocol 17 offset (bytes) 1480 flags [none] length: 372 10.1.3.3 > 10.1.2.4) Payload Fragment [3744:4096]
r 6.0102 /NodeList/1/DeviceList/0/$ns3::PointToPointNetDevice/MacRx ns3::PppHeader (Point-to-Point Protocol: IP (0x0021)) ns3::Ipv4Header (tos 0x0 DSCP Default ECN Not-ECT ttl 63 id 4 protocol 17 offset (bytes) 0 flags [MF] length: 1500 10.1.3.3 > 10.1.2.4) Payload Fragment [2264:3744]
r 6.0108 /NodeList/1/DeviceList/0/$ns3::PointToPointNetDevice/MacRx ns3::PppHeader (Point-to-Point Protocol: IP (0x0021)) ns3::Ipv4Header (tos 0x0 DSCP Default ECN Not-ECT ttl 63 id 4 protocol 17 offset (bytes) 1480 flags [none] length: 372 10.1.3.3 > 10.1.2.4) Payload Fragment [3744:4096]
+ 6.01097 /NodeList/1/DeviceList/0/$ns3::PointToPointNetDevice/TxQueue/Enqueue ns3::PppHeader (Point-to-Point Protocol: IP (0x0021)) ns3::Ipv4Header (tos 0x0 DSCP Default ECN Not-ECT ttl 63 id 3 protocol 17 offset (bytes) 0 flags [MF] length: 1500 10.1.2.4 > 10.1.3.3) ns3::UdpHeader (length: 2272 9 > 49153) Payload Fragment [0:1472]
- 6.01097 /NodeList/1/DeviceList/0/$ns3::PointToPointNetDevice/TxQueue/Dequeue ns3::PppHeader (Point-to-Point Protocol: IP (0x0021)) ns3::Ipv4Header (tos 0x0 DSCP Default ECN Not-ECT ttl 63 id 3 protocol 17 offset (bytes) 0 flags [MF] length: 1500 10.1.2.4 > 10.1.3.3) ns3::UdpHeader (length: 2272 9 > 49153) Payload Fragment [0:1472]
+ 6.01104 /NodeList/1/DeviceList/0/$ns3::PointToPointNetDevice/TxQueue/Enqueue ns3::PppHeader (Point-to-Point Protocol: IP (0x0021)) ns3::Ipv4Header (tos 0x0 DSCP Default ECN Not-ECT ttl 63 id 3 protocol 17 offset (bytes) 1480 flags [none] length: 812 10.1.2.4 > 10.1.3.3) Payload Fragment [1472:2264]
- 6.01337 /NodeList/1/DeviceList/0/$ns3::PointToPointNetDevice/TxQueue/Dequeue ns3::PppHeader (Point-to-Point Protocol: IP (0x0021)) ns3::Ipv4Header (tos 0x0 DSCP Default ECN Not-ECT ttl 63 id 3 protocol 17 offset (bytes) 1480 flags [none] length: 812 10.1.2.4 > 10.1.3.3) Payload Fragment [1472:2264]
r 6.01537 /NodeList/0/DeviceList/0/$ns3::PointToPointNetDevice/MacRx ns3::PppHeader (Point-to-Point Protocol: IP (0x0021)) ns3::Ipv4Header (tos 0x0 DSCP Default ECN Not-ECT ttl 63 id 3 protocol 17 offset (bytes) 0 flags [MF] length: 1500 10.1.2.4 > 10.1.3.3) ns3::UdpHeader (length: 2272 9 > 49153) Payload Fragment [0:1472]
r 6.01667 /NodeList/0/DeviceList/0/$ns3::PointToPointNetDevice/MacRx ns3::PppHeader (Point-to-Point Protocol: IP (0x0021)) ns3::Ipv4Header (tos 0x0 DSCP Default ECN Not-ECT ttl 63 id 3 protocol 17 offset (bytes) 1480 flags [none] length: 812 10.1.2.4 > 10.1.3.3) Payload Fragment [1472:2264]
+ 7.00209 /NodeList/0/DeviceList/0/$ns3::PointToPointNetDevice/TxQueue/Enqueue ns3::PppHeader (Point-to-Point Protocol: IP (0x0021)) ns3::Ipv4Header (tos 0x0 DSCP Default ECN Not-ECT ttl 63 id 5 protocol 17 offset (bytes) 0 flags [MF] length: 1500 10.1.3.3 > 10.1.2.4) ns3::UdpHeader (length: 4104 49153 > 9) Payload Fragment [0:1472]
- 7.00209 /NodeList/0/DeviceList/0/$ns3::PointToPointNetDevice/TxQueue/Dequeue ns3::PppHeader (Point-to-Point Protocol: IP (0x0021)) ns3::Ipv4Header (tos 0x0 DSCP Default ECN Not-ECT ttl 63 id 5 protocol 17 offset (bytes) 0 flags [MF] length: 1500 10.1.3.3 > 10.1.2.4) ns3::UdpHeader (length: 4104 49153 > 9) Payload Fragment [0:1472]
+ 7.00209 /NodeList/0/DeviceList/0/$ns3::PointToPointNetDevice/TxQueue/Enqueue ns3::PppHeader (Point-to-Point Protocol: IP (0x0021)) ns3::Ipv4Header (tos 0x0 DSCP Default ECN Not-ECT ttl 63 id 5 protocol 17 offset (bytes) 1480 flags [MF] length: 812 10.1.3.3 > 10.1.2.4) Payload Fragment [1472:2264]
+ 7.00398 /NodeList/0/DeviceList/0/$ns3::PointToPointNetDevice/TxQueue/Enqueue ns3::PppHeader (Point-to-Point Protocol: IP (0x0021)) ns3::Ipv4Header (tos 0x0 DSCP Default ECN Not-ECT ttl 63 id 5 protocol 17 offset (bytes) 0 flags [MF] length: 1500 10.1.3.3 > 10.1.2.4) Payload Fragment [2264:3744]
+ 7.00398 /NodeList/0/DeviceList/0/$ns3::PointToPointNetDevice/TxQueue/Enqueue ns3::PppHeader (Point-to-Point Protocol: IP (0x0021)) ns3::Ipv4Header (tos 0x0 DSCP Default ECN Not-ECT ttl 63 id 5 protocol 17 offset (bytes) 1480 flags [none] length: 372 10.1.3.3 > 10.1.2.4) Payload Fragment [3744:4096]
- 7.0045 /NodeList/0/DeviceList/0/$ns3::PointToPointNetDevice/TxQueue/Dequeue ns3::PppHeader (Point-to-Point Protocol: IP (0x0021)) ns3::Ipv4Header (tos 0x0 DSCP Default ECN Not-ECT ttl 63 id 5 protocol 17 offset (bytes) 1480 flags [MF] length: 812 10.1.3.3 > 10.1.2.4) Payload Fragment [1472:2264]
- 7.0058 /NodeList/0/DeviceList/0/$ns3::PointToPointNetDevice/TxQueue/Dequeue ns3::PppHeader (Point-to-Point Protocol: IP (0x0021)) ns3::Ipv4Header (tos 0x0 DSCP Default ECN Not-ECT ttl 63 id 5 protocol 17 offset (bytes) 0 flags [MF] length: 1500 10.1.3.3 > 10.1.2.4) Payload Fragment [2264:3744]
r 7.0065 /NodeList/1/DeviceList/0/$ns3::PointToPointNetDevice/MacRx ns3::PppHeader (Point-to-Point Protocol: IP (0x0021)) ns3::Ipv4Header (tos 0x0 DSCP Default ECN Not-ECT ttl 63 id 5 protocol 17 offset (bytes) 0 flags [MF] length: 1500 10.1.3.3 > 10.1.2.4) ns3::UdpHeader (length: 4104 49153 > 9) Payload Fragment [0:1472]
r 7.0078 /NodeList/1/DeviceList/0/$ns3::PointToPointNetDevice/MacRx ns3::PppHeader (Point-to-Point Protocol: IP (0x0021)) ns3::Ipv4Header (tos 0x0 DSCP Default ECN Not-ECT ttl 63 id 5 protocol 17 offset (bytes) 1480 flags [MF] length: 812 10.1.3.3 > 10.1.2.4) Payload Fragment [1472:2264]
- 7.0082 /NodeList/0/DeviceList/0/$ns3::PointToPointNetDevice/TxQueue/Dequeue ns3::PppHeader (Point-to-Point Protocol: IP (0x0021)) ns3::Ipv4Header (tos 0x0 DSCP Default ECN Not-ECT ttl 63 id 5 protocol 17 offset (bytes) 1480 flags [none] length: 372 10.1.3.3 > 10.1.2.4) Payload Fragment [3744:4096]
r 7.0102 /NodeList/1/DeviceList/0/$ns3::PointToPointNetDevice/MacRx ns3::PppHeader (Point-to-Point Protocol: IP (0x0021)) ns3::Ipv4Header (tos 0x0 DSCP Default ECN Not-ECT ttl 63 id 5 protocol 17 offset (bytes) 0 flags [MF] length: 1500 10.1.3.3 > 10.1.2.4) Payload Fragment [2264:3744]
r 7.0108 /NodeList/1/DeviceList/0/$ns3::PointToPointNetDevice/MacRx ns3::PppHeader (Point-to-Point Protocol: IP (0x0021)) ns3::Ipv4Header (tos 0x0 DSCP Default ECN Not-ECT ttl 63 id 5 protocol 17 offset (bytes) 1480 flags [none] length: 372 10.1.3.3 > 10.1.2.4) Payload Fragment [3744:4096]
+ 7.01097 /NodeList/1/DeviceList/0/$ns3::PointToPointNetDevice/TxQueue/Enqueue ns3::PppHeader (Point-to-Point Protocol: IP (0x0021)) ns3::Ipv4Header (tos 0x0 DSCP Default ECN Not-ECT ttl 63 id 4 protocol 17 offset (bytes) 0 flags [MF] length: 1500 10.1.2.4 > 10.1.3.3) ns3::UdpHeader (length: 2272 9 > 49153) Payload Fragment [0:1472]